 Gaussian 16, Revision A.03,
 Gaussian 16:  ES64L-G16RevA.03 25-Dec-2016

 ------------------------
 #p pddg opt freq=noraman
 ------------------------

 ----------------------
 pentane conformation 4
 ----------------------
 Symbolic Z-matrix:
 Charge =  0 Multiplicity = 1

 SCF Done:  E(RPDDG) = -0.748139749882E-02 A.U. after   12 cycles
 SCF Done:  E(RPDDG) = -0.363971739903E-01 A.U. after   12 cycles
 SCF Done:  E(RPDDG) = -0.418377088837E-01 A.U. after   11 cycles
 SCF Done:  E(RPDDG) = -0.486207747247E-01 A.U. after   11 cycles
 SCF Done:  E(RPDDG) = -0.507654733214E-01 A.U. after   11 cycles
 SCF Done:  E(RPDDG) = -0.513108561635E-01 A.U. after   10 cycles
 SCF Done:  E(RPDDG) = -0.514542230324E-01 A.U. after   11 cycles
 SCF Done:  E(RPDDG) = -0.508443350489E-01 A.U. after   11 cycles
 SCF Done:  E(RPDDG) = -0.516418704794E-01 A.U. after   10 cycles
 SCF Done:  E(RPDDG) = -0.518600511249E-01 A.U. after   11 cycles
 SCF Done:  E(RPDDG) = -0.526127885250E-01 A.U. after    8 cycles
 SCF Done:  E(RPDDG) = -0.530727754686E-01 A.U. after   11 cycles
 SCF Done:  E(RPDDG) = -0.527065046727E-01 A.U. after   11 cycles
 SCF Done:  E(RPDDG) = -0.530914432283E-01 A.U. after   10 cycles
 SCF Done:  E(RPDDG) = -0.531310644016E-01 A.U. after    9 cycles
 SCF Done:  E(RPDDG) = -0.531327249394E-01 A.U. after    8 cycles
 SCF Done:  E(RPDDG) = -0.531333108199E-01 A.U. after    8 cycles
 SCF Done:  E(RPDDG) = -0.531335306950E-01 A.U. after    7 cycles
 SCF Done:  E(RPDDG) = -0.531338233322E-01 A.U. after    8 cycles
 Optimization completed.
    -- Stationary point found.
 Normal termination of Gaussian 16 at Fri Nov  3 15:08:31 2017.

 --------------------------------------------------------------
 #P Geom=AllCheck Guess=TCheck SCRF=Check GenChk RPDDG/ZDO Freq
 --------------------------------------------------------------

 Structure from the checkpoint file:  "/scratch/dhuang9_pentane_conformation_4/Gau-59143.chk"
 ----------------------
 pentane conformation 4
 ----------------------
 Charge =  0 Multiplicity = 1

                         Standard orientation:
 ---------------------------------------------------------------------
 Center     Atomic      Atomic             Coordinates (Angstroms)
 Number     Number       Type             X           Y           Z
 ---------------------------------------------------------------------
      1          6           0        1.103023   -0.463509    0.477287
      2          1           0        1.836557   -1.272209    0.672780
      3          1           0        0.732678   -0.158246    1.480350
      4          6           0       -0.040235   -0.973450   -0.400350
      5          1           0       -0.042508   -2.082911   -0.423415
      6          1           0        0.099082   -0.664850   -1.460485
      7          6           0       -1.400093   -0.498477    0.093752
      8          1           0       -2.197429   -0.969871   -0.515279
      9          1           0       -1.572262   -0.841239    1.134937
     10          6           0        1.815049    0.706727   -0.175497
     11          1           0        1.128516    1.541970   -0.369330
     12          1           0        2.625656    1.084405    0.455773
     13          1           0        2.252737    0.427334   -1.141093
     14          6           0       -1.517259    1.011189    0.026698
     15          1           0       -0.871319    1.493845    0.772290
     16          1           0       -1.211937    1.402169   -0.952498
     17          1           0       -2.542684    1.344724    0.214632
 ---------------------------------------------------------------------

 SCF Done:  E(RPDDG) = -0.531338233322E-01 A.U. after    2 cycles

 The electronic state is 1-A.
 Alpha  occ. eigenvalues --   -1.46226  -1.19558  -1.00869  -0.82784  -0.75872
 Alpha  occ. eigenvalues --   -0.60341  -0.57475  -0.55651  -0.51813  -0.50009
 Alpha  occ. eigenvalues --   -0.48760  -0.46696  -0.44759  -0.42693  -0.41814
 Alpha  occ. eigenvalues --   -0.40802
 Alpha virt. eigenvalues --    0.12698   0.13667   0.14458   0.15280   0.15511
 Alpha virt. eigenvalues --    0.15997   0.16106   0.16480   0.17186   0.17817
 Alpha virt. eigenvalues --    0.18499   0.18950   0.19166   0.20103   0.20264

 Mulliken charges:
               1
     1  C   -0.174294
     2  H    0.089165
     3  H    0.097514
     4  C   -0.190881
     5  H    0.089854
     6  H    0.099777
     7  C   -0.175471
     8  H    0.090253
     9  H    0.092237
    10  C   -0.279645
    11  H    0.093987
    12  H    0.087040
    13  H    0.087350
    14  C   -0.277459
    15  H    0.092558
    16  H    0.090639
    17  H    0.087377
 Sum of Mulliken charges =   0.00000

 Dipole moment (field-independent basis, Debye):
    X=             -0.0077    Y=              0.0572    Z=             -0.0090  Tot=              0.0585
 N-N= 1.258430808283D+02 E-N=-1.879799568513D+02  KE=-4.249002717773D+01
  Exact polarizability:  37.277   0.069  34.515   0.430   0.161  33.994
 Approx polarizability:  23.399   0.103  22.845   0.204   0.056  23.163
 Leave Link  601 at Fri Nov  3 15:08:33 2017, MaxMem=   134217728 cpu:               0.1 elap:               0.1
 (Enter /n/sw/g16_nehalem/g16/l701.exe)
 ... and contract with generalized density number  0.
 Compute integral second derivatives.
 Leave Link  701 at Fri Nov  3 15:08:33 2017, MaxMem=   134217728 cpu:               0.1 elap:               0.1
 (Enter /n/sw/g16_nehalem/g16/l702.exe)
 L702 exits ... SP integral derivatives will be done elsewhere.

                      1                      2                      3
                      A                      A                      A
 Frequencies --    160.9795               186.3558               224.5187
 Red. masses --      1.2453                 1.8732                 1.5899
 Frc consts  --      0.0190                 0.0383                 0.0472
 IR Inten    --      0.0274                 0.0013                 0.0122

                      4                      5                      6
                      A                      A                      A
 Frequencies --    341.4507               381.6850               452.0349
 Red. masses --      1.1920                 1.9914                 2.4247
 Frc consts  --      0.0819                 0.1709                 0.2919
 IR Inten    --      0.1776                 0.5689                 0.8461

                      7                      8                      9
                      A                      A                      A
 Frequencies --    535.3199               796.6531               830.2163
 Red. masses --      1.8710                 1.1780                 1.2880
 Frc consts  --      0.3159                 0.4405                 0.5230
 IR Inten    --      2.2462                10.0820                 7.5490

                     10                     11                     12
                      A                      A                      A
 Frequencies --    899.1272               914.6736               959.3684
 Red. masses --      1.3329                 1.5550                 1.3726
 Frc consts  --      0.6349                 0.7665                 0.7443
 IR Inten    --      1.2478                 4.8158                 9.3691

                     13                     14                     15
                      A                      A                      A
 Frequencies --   1015.6218              1055.1555              1075.3900
 Red. masses --      1.2385                 1.3016                 1.4006
 Frc consts  --      0.7527                 0.8538                 0.9543
 IR Inten    --      3.3538                 1.8060                 1.1666

                     16                     17                     18
                      A                      A                      A
 Frequencies --   1105.0607              1115.6450              1124.4815
 Red. masses --      1.3055                 1.4061                 1.4299
 Frc consts  --      0.9393                 1.0311                 1.0653
 IR Inten    --      2.1326                 2.6430                 2.3511

                     19                     20                     21
                      A                      A                      A
 Frequencies --   1158.1408              1186.2849              1192.9860
 Red. masses --      1.2907                 1.6459                 1.0937
 Frc consts  --      1.0200                 1.3647                 0.9171
 IR Inten    --      0.1979                 0.6452                 0.5209

                     22                     23                     24
                      A                      A                      A
 Frequencies --   1247.2958              1278.4393              1297.1971
 Red. masses --      1.3186                 1.2942                 1.0781
 Frc consts  --      1.2086                 1.2463                 1.0688
 IR Inten    --      2.7239                 6.3525                 4.5014

                     25                     26                     27
                      A                      A                      A
 Frequencies --   1301.9063              1312.0047              1316.9290
 Red. masses --      1.1615                 1.0753                 1.0674
 Frc consts  --      1.1599                 1.0906                 1.0907
 IR Inten    --      0.7744                 4.5295                 0.8406

                     28                     29                     30
                      A                      A                      A
 Frequencies --   1336.0236              1357.5461              1362.5710
 Red. masses --      1.1367                 1.2542                 1.4869
 Frc consts  --      1.1955                 1.3619                 1.6265
 IR Inten    --      3.1915                 7.1646                 3.2592

                     31                     32                     33
                      A                      A                      A
 Frequencies --   1392.3807              1421.8896              1437.5227
 Red. masses --      1.4759                 1.8104                 1.9831
 Frc consts  --      1.6859                 2.1566                 2.4145
 IR Inten    --      0.8642                 5.1262                 1.4455

                     34                     35                     36
                      A                      A                      A
 Frequencies --   2880.8004              2883.5233              2901.5755
 Red. masses --      1.0935                 1.0970                 1.0981
 Frc consts  --      5.3467                 5.3741                 5.4471
 IR Inten    --      1.0139                 1.7659                 0.7883

                     37                     38                     39
                      A                      A                      A
 Frequencies --   2903.1454              2910.6952              2917.5651
 Red. masses --      1.0638                 1.0679                 1.0745
 Frc consts  --      5.2826                 5.3304                 5.3888
 IR Inten    --      1.3381                 1.4140                 1.9805

                     40                     41                     42
                      A                      A                      A
 Frequencies --   3007.8515              3013.7757              3020.7758
 Red. masses --      1.1003                 1.0828                 1.0555
 Frc consts  --      5.8653                 5.7948                 5.6749
 IR Inten    --      3.6142                 4.6625                 1.5210

                     43                     44                     45
                      A                      A                      A
 Frequencies --   3031.0596              3036.3825              3037.5926
 Red. masses --      1.0582                 1.0892                 1.0845
 Frc consts  --      5.7283                 5.9164                 5.8958
 IR Inten    --      1.4555                 3.3804                 3.1838

 - Thermochemistry -
 -------------------
 Temperature   298.150 Kelvin.  Pressure   1.00000 Atm.
 Atom     1 has atomic number  6 and mass  12.00000

 Molecular mass:    72.09390 amu.
 Principal axes and moments of inertia in atomic units:
                           1         2         3
     Eigenvalues --   242.99884 548.65336 685.08530
           X            1.00000   0.00182  -0.00252
           Y           -0.00183   0.99999  -0.00392
           Z            0.00251   0.00393   0.99999
 This molecule is an asymmetric top.
 Rotational symmetry number  1.
 Rotational temperatures (Kelvin)      0.35644     0.15787     0.12643
 Rotational constants (GHZ):           7.42695     3.28940     2.63433
 Zero-point vibrational energy     408630.0 (Joules/Mol)
                                   97.66491 (Kcal/Mol)
 Warning -- explicit consideration of   7 degrees of freedom as
           vibrations may cause significant error
 Vibrational temperatures:    231.61   268.12   323.03   491.27   549.16
          (Kelvin)            650.38   770.21  1146.21  1194.50  1293.64
                             1316.01  1380.32  1461.25  1518.13  1547.25
                             1589.94  1605.16  1617.88  1666.31  1706.80
                             1716.44  1794.58  1839.39  1866.38  1873.15
                             1887.68  1894.77  1922.24  1953.21  1960.44
                             2003.33  2045.78  2068.27  4144.83  4148.75
                             4174.72  4176.98  4187.84  4197.73  4327.63
                             4336.15  4346.22  4361.02  4368.68  4370.42

 Zero-point correction=                           0.155639 (Hartree/Particle)
 Thermal correction to Energy=                    0.161994
 Thermal correction to Enthalpy=                  0.162938
 Thermal correction to Gibbs Free Energy=         0.126500
 Sum of electronic and zero-point Energies=              0.102505
 Sum of electronic and thermal Energies=                 0.108860
 Sum of electronic and thermal Enthalpies=               0.109805
 Sum of electronic and thermal Free Energies=            0.073366

                     E (Thermal)             CV                S
                      KCal/Mol        Cal/Mol-Kelvin    Cal/Mol-Kelvin
 Total                  101.653             23.841             76.691
 Electronic               0.000              0.000              0.000
 Translational            0.889              2.981             38.743
 Rotational               0.889              2.981             26.016
 Vibrational             99.875             17.879             11.933
 Vibration     1          0.622              1.890              2.538
 Vibration     2          0.632              1.859              2.264
 Vibration     3          0.649              1.804              1.922
 Vibration     4          0.721              1.593              1.205
 Vibration     5          0.751              1.509              1.032
 Vibration     6          0.811              1.356              0.790
 Vibration     7          0.890              1.172              0.575

 Optimization completed.
    -- Stationary point found.
 Normal termination of Gaussian 16 at Fri Nov  3 15:08:34 2017.
