 Gaussian 16, Revision A.03,
 Gaussian 16:  ES64L-G16RevA.03 25-Dec-2016

 ------------------------
 #p pddg opt freq=noraman
 ------------------------

 ----------------------
 pentane conformation 1
 ----------------------
 Symbolic Z-matrix:
 Charge =  0 Multiplicity = 1

 SCF Done:  E(RPDDG) = -0.427611851057E-01 A.U. after   12 cycles
 SCF Done:  E(RPDDG) = -0.516098871906E-01 A.U. after   11 cycles
 SCF Done:  E(RPDDG) = -0.531204783496E-01 A.U. after   11 cycles
 SCF Done:  E(RPDDG) = -0.545599035257E-01 A.U. after   11 cycles
 SCF Done:  E(RPDDG) = -0.548376537722E-01 A.U. after   10 cycles
 SCF Done:  E(RPDDG) = -0.548756304841E-01 A.U. after    9 cycles
 SCF Done:  E(RPDDG) = -0.548793841527E-01 A.U. after    8 cycles
 SCF Done:  E(RPDDG) = -0.548804633022E-01 A.U. after    8 cycles
 SCF Done:  E(RPDDG) = -0.548806192783E-01 A.U. after    8 cycles
 SCF Done:  E(RPDDG) = -0.548807785166E-01 A.U. after    7 cycles
 Optimization completed.
    -- Stationary point found.
 Normal termination of Gaussian 16 at Fri Nov  3 15:08:16 2017.

 --------------------------------------------------------------
 #P Geom=AllCheck Guess=TCheck SCRF=Check GenChk RPDDG/ZDO Freq
 --------------------------------------------------------------

 Structure from the checkpoint file:  "/scratch/dhuang9_pentane_conformation_1/Gau-52205.chk"
 ----------------------
 pentane conformation 1
 ----------------------
 Charge =  0 Multiplicity = 1

                         Standard orientation:
 ---------------------------------------------------------------------
 Center     Atomic      Atomic             Coordinates (Angstroms)
 Number     Number       Type             X           Y           Z
 ---------------------------------------------------------------------
      1          6           0        2.095100   -0.645864    0.195765
      2          1           0        1.633635   -1.571341   -0.169215
      3          1           0        2.110898   -0.707231    1.290678
      4          1           0        3.134906   -0.647358   -0.147374
      5          6           0        1.358608    0.588595   -0.286306
      6          1           0        1.926690    1.494761    0.006422
      7          1           0        1.326088    0.604292   -1.395997
      8          6           0       -0.047745    0.659491    0.292362
      9          1           0       -0.031088    0.468429    1.387470
     10          1           0       -0.447187    1.689999    0.180234
     11          6           0       -0.980409   -0.327612   -0.396276
     12          1           0       -0.627971   -1.369291   -0.247100
     13          1           0       -0.970868   -0.165514   -1.494193
     14          6           0       -2.387335   -0.174272    0.146687
     15          1           0       -2.775439    0.839089   -0.011627
     16          1           0       -3.080387   -0.869478   -0.337732
     17          1           0       -2.428587   -0.368377    1.225040
 ---------------------------------------------------------------------

 SCF Done:  E(RPDDG) = -0.548807785165E-01 A.U. after    2 cycles

 The electronic state is 1-A.
 Alpha  occ. eigenvalues --   -1.45482  -1.22036  -0.98399  -0.83423  -0.76326
 Alpha  occ. eigenvalues --   -0.59938  -0.57355  -0.56041  -0.52762  -0.49830
 Alpha  occ. eigenvalues --   -0.48620  -0.46088  -0.44781  -0.43893  -0.41802
 Alpha  occ. eigenvalues --   -0.40712
 Alpha virt. eigenvalues --    0.12467   0.13648   0.14890   0.15301   0.15490
 Alpha virt. eigenvalues --    0.15630   0.15838   0.16771   0.17178   0.17616
 Alpha virt. eigenvalues --    0.18561   0.18848   0.19274   0.20087   0.20120

 Mulliken charges:
               1
     1  C   -0.273815
     2  H    0.089533
     3  H    0.088981
     4  H    0.086812
     5  C   -0.174399
     6  H    0.090261
     7  H    0.094352
     8  C   -0.192885
     9  H    0.097498
    10  H    0.093231
    11  C   -0.180593
    12  H    0.095883
    13  H    0.093449
    14  C   -0.271322
    15  H    0.087614
    16  H    0.087634
    17  H    0.087766
 Sum of Mulliken charges =   0.00000

 Dipole moment (field-independent basis, Debye):
    X=             -0.0025    Y=             -0.0162    Z=              0.0208  Tot=              0.0265
 N-N= 1.238436830297D+02 E-N=-1.839591050927D+02  KE=-4.248829573771D+01
  Exact polarizability:  37.422   0.066  34.495  -0.255   0.210  34.281
 Approx polarizability:  23.140  -0.048  23.120  -0.251   0.188  23.154
 Leave Link  601 at Fri Nov  3 15:08:17 2017, MaxMem=   134217728 cpu:               0.1 elap:               0.1
 (Enter /n/sw/g16_nehalem/g16/l701.exe)
 ... and contract with generalized density number  0.
 Compute integral second derivatives.
 Leave Link  701 at Fri Nov  3 15:08:18 2017, MaxMem=   134217728 cpu:               0.1 elap:               0.1
 (Enter /n/sw/g16_nehalem/g16/l702.exe)
 L702 exits ... SP integral derivatives will be done elsewhere.

                      1                      2                      3
                      A                      A                      A
 Frequencies --     86.4742               126.7024               196.4349
 Red. masses --      1.8169                 1.5682                 1.0778
 Frc consts  --      0.0080                 0.0148                 0.0245
 IR Inten    --      0.0124                 0.0185                 0.0050

                      4                      5                      6
                      A                      A                      A
 Frequencies --    256.0436               333.3853               411.1258
 Red. masses --      1.3261                 2.1407                 2.6120
 Frc consts  --      0.0512                 0.1402                 0.2601
 IR Inten    --      0.0413                 0.7330                 0.3676

                      7                      8                      9
                      A                      A                      A
 Frequencies --    545.8804               743.4032               800.1330
 Red. masses --      2.4469                 1.1262                 1.1990
 Frc consts  --      0.4296                 0.3667                 0.4523
 IR Inten    --      0.8947                10.2214                 7.8420

                     10                     11                     12
                      A                      A                      A
 Frequencies --    885.7943               911.1477               968.8451
 Red. masses --      1.2512                 1.4205                 1.2783
 Frc consts  --      0.5784                 0.6948                 0.7069
 IR Inten    --      1.0058                 4.5194                 9.0226

                     13                     14                     15
                      A                      A                      A
 Frequencies --    986.8153              1054.1511              1084.2858
 Red. masses --      1.2522                 1.3921                 1.3019
 Frc consts  --      0.7184                 0.9114                 0.9018
 IR Inten    --      0.9142                 0.6003                 0.3276

                     16                     17                     18
                      A                      A                      A
 Frequencies --   1098.6232              1119.7938              1134.3754
 Red. masses --      1.4289                 1.5537                 1.3242
 Frc consts  --      1.0161                 1.1479                 1.0039
 IR Inten    --      1.4750                 1.1726                 1.0207

                     19                     20                     21
                      A                      A                      A
 Frequencies --   1154.8607              1174.0479              1196.2728
 Red. masses --      1.4851                 1.3305                 1.1715
 Frc consts  --      1.1670                 1.0805                 0.9878
 IR Inten    --      1.2114                 0.9133                 0.4869

                     22                     23                     24
                      A                      A                      A
 Frequencies --   1243.3870              1281.9630              1290.5179
 Red. masses --      1.2865                 1.2202                 1.1593
 Frc consts  --      1.1719                 1.1815                 1.1376
 IR Inten    --      3.9724                 2.8760                 6.4194

                     25                     26                     27
                      A                      A                      A
 Frequencies --   1304.8336              1306.4467              1308.5087
 Red. masses --      1.0751                 1.0676                 1.0753
 Frc consts  --      1.0785                 1.0736                 1.0848
 IR Inten    --      2.3314                 7.9474                 5.3988

                     28                     29                     30
                      A                      A                      A
 Frequencies --   1318.6937              1334.8756              1347.9900
 Red. masses --      1.1356                 1.1597                 1.4751
 Frc consts  --      1.1635                 1.2175                 1.5792
 IR Inten    --      1.0113                 3.2320                 0.8562

                     31                     32                     33
                      A                      A                      A
 Frequencies --   1369.4870              1404.8386              1454.2076
 Red. masses --      1.6438                 2.0871                 2.5509
 Frc consts  --      1.8164                 2.4269                 3.1783
 IR Inten    --      2.1191                 3.0754                 2.7183

                     34                     35                     36
                      A                      A                      A
 Frequencies --   2885.5773              2892.4358              2898.5315
 Red. masses --      1.1032                 1.0877                 1.0934
 Frc consts  --      5.4122                 5.3614                 5.4125
 IR Inten    --      0.6658                 0.5992                 2.1387

                     37                     38                     39
                      A                      A                      A
 Frequencies --   2900.4976              2907.7251              2911.5563
 Red. masses --      1.0794                 1.0632                 1.0663
 Frc consts  --      5.3504                 5.2963                 5.3256
 IR Inten    --      1.2334                 0.7723                 2.1403

                     40                     41                     42
                      A                      A                      A
 Frequencies --   3021.8894              3022.8618              3029.9537
 Red. masses --      1.0974                 1.1003                 1.0775
 Frc consts  --      5.9045                 5.9238                 5.8280
 IR Inten    --      2.9325                 2.5747                 2.4385

                     43                     44                     45
                      A                      A                      A
 Frequencies --   3029.9707              3038.9482              3038.9958
 Red. masses --      1.0655                 1.0685                 1.0614
 Frc consts  --      5.7632                 5.8140                 5.7753
 IR Inten    --      1.6520                 3.7556                 1.7628

 - Thermochemistry -
 -------------------
 Temperature   298.150 Kelvin.  Pressure   1.00000 Atm.
 Atom     1 has atomic number  6 and mass  12.00000

 Molecular mass:    72.09390 amu.
 Principal axes and moments of inertia in atomic units:
                           1         2         3
     Eigenvalues --   153.20153 772.83812 824.50626
           X            0.99999  -0.00521  -0.00144
           Y            0.00521   0.99999  -0.00094
           Z            0.00145   0.00094   1.00000
 This molecule is an asymmetric top.
 Rotational symmetry number  1.
 Rotational temperatures (Kelvin)      0.56536     0.11207     0.10505
 Rotational constants (GHZ):          11.78018     2.33521     2.18888
 Zero-point vibrational energy     405613.5 (Joules/Mol)
                                   96.94396 (Kcal/Mol)
 Warning -- explicit consideration of   7 degrees of freedom as
           vibrations may cause significant error
 Vibrational temperatures:    124.42   182.30   282.63   368.39   479.67
          (Kelvin)            591.52   785.40  1069.59  1151.21  1274.46
                             1310.94  1393.95  1419.81  1516.69  1560.05
                             1580.67  1611.13  1632.11  1661.59  1689.19
                             1721.17  1788.96  1844.46  1856.77  1877.36
                             1879.69  1882.65  1897.31  1920.59  1939.46
                             1970.39  2021.25  2092.28  4151.70  4161.57
                             4170.34  4173.17  4183.57  4189.08  4347.82
                             4349.22  4359.43  4359.45  4372.37  4372.44

 Zero-point correction=                           0.154490 (Hartree/Particle)
 Thermal correction to Energy=                    0.161351
 Thermal correction to Enthalpy=                  0.162295
 Thermal correction to Gibbs Free Energy=         0.124364
 Sum of electronic and zero-point Energies=              0.099609
 Sum of electronic and thermal Energies=                 0.106470
 Sum of electronic and thermal Enthalpies=               0.107414
 Sum of electronic and thermal Free Energies=            0.069483

                     E (Thermal)             CV                S
                      KCal/Mol        Cal/Mol-Kelvin    Cal/Mol-Kelvin
 Total                  101.249             24.566             79.834
 Electronic               0.000              0.000              0.000
 Translational            0.889              2.981             38.743
 Rotational               0.889              2.981             26.082
 Vibrational             99.472             18.604             15.009
 Vibration     1          0.601              1.959              3.738
 Vibration     2          0.611              1.926              2.996
 Vibration     3          0.636              1.845              2.166
 Vibration     4          0.666              1.753              1.689
 Vibration     5          0.715              1.609              1.244
 Vibration     6          0.775              1.446              0.923
 Vibration     7          0.901              1.149              0.553

 Optimization completed.
    -- Stationary point found.
 Normal termination of Gaussian 16 at Fri Nov  3 15:08:18 2017.
