 Gaussian 16, Revision A.03,
 Gaussian 16:  ES64L-G16RevA.03 25-Dec-2016

 ------------------------
 #p pddg opt freq=noraman
 ------------------------

 ----------------------
 pentane conformation 3
 ----------------------
 Symbolic Z-matrix:
 Charge =  0 Multiplicity = 1

 SCF Done:  E(RPDDG) = -0.407441314391E-01 A.U. after   12 cycles
 SCF Done:  E(RPDDG) = -0.491811875480E-01 A.U. after   11 cycles
 SCF Done:  E(RPDDG) = -0.519586554128E-01 A.U. after   11 cycles
 SCF Done:  E(RPDDG) = -0.531022003183E-01 A.U. after   11 cycles
 SCF Done:  E(RPDDG) = -0.532396560624E-01 A.U. after   11 cycles
 SCF Done:  E(RPDDG) = -0.535222041509E-01 A.U. after   11 cycles
 SCF Done:  E(RPDDG) = -0.538155292597E-01 A.U. after   11 cycles
 SCF Done:  E(RPDDG) = -0.540205546041E-01 A.U. after   11 cycles
 SCF Done:  E(RPDDG) = -0.540793329709E-01 A.U. after   10 cycles
 SCF Done:  E(RPDDG) = -0.541472354906E-01 A.U. after   10 cycles
 SCF Done:  E(RPDDG) = -0.541673234438E-01 A.U. after    9 cycles
 SCF Done:  E(RPDDG) = -0.541701784249E-01 A.U. after    9 cycles
 SCF Done:  E(RPDDG) = -0.541710502862E-01 A.U. after    8 cycles
 SCF Done:  E(RPDDG) = -0.541711117944E-01 A.U. after    7 cycles
 Optimization completed.
    -- Stationary point found.
 Normal termination of Gaussian 16 at Fri Nov  3 15:08:23 2017.

 --------------------------------------------------------------
 #P Geom=AllCheck Guess=TCheck SCRF=Check GenChk RPDDG/ZDO Freq
 --------------------------------------------------------------

 Structure from the checkpoint file:  "/scratch/dhuang9_pentane_conformation_3/Gau-52207.chk"
 ----------------------
 pentane conformation 3
 ----------------------
 Charge =  0 Multiplicity = 1

                         Standard orientation:
 ---------------------------------------------------------------------
 Center     Atomic      Atomic             Coordinates (Angstroms)
 Number     Number       Type             X           Y           Z
 ---------------------------------------------------------------------
      1          6           0       -1.067394    0.098928   -0.688262
      2          1           0       -0.610834   -0.700768   -1.307787
      3          1           0       -1.632391    0.734330   -1.400441
      4          6           0        0.000012    0.940021   -0.000536
      5          1           0       -0.477675    1.615409    0.741608
      6          1           0        0.477671    1.614560   -0.743460
      7          6           0        1.067470    0.099815    0.688168
      8          1           0        1.632527    0.736173    1.399444
      9          1           0        0.610921   -0.699055    1.308769
     10          6           0        2.030638   -0.508803   -0.312443
     11          1           0        2.853153   -1.025091    0.193544
     12          1           0        1.543726   -1.243858   -0.964366
     13          1           0        2.474536    0.252656   -0.965200
     14          6           0       -2.030717   -0.508364    0.313019
     15          1           0       -2.852653   -1.026088   -0.192428
     16          1           0       -1.543743   -1.241973    0.966532
     17          1           0       -2.475287    0.254121    0.964104
 ---------------------------------------------------------------------

 SCF Done:  E(RPDDG) = -0.541711117944E-01 A.U. after    2 cycles

 The electronic state is 1-A.
 Alpha  occ. eigenvalues --   -1.45700  -1.20762  -0.98830  -0.86111  -0.73540
 Alpha  occ. eigenvalues --   -0.60118  -0.58904  -0.53793  -0.52540  -0.51562
 Alpha  occ. eigenvalues --   -0.48315  -0.46084  -0.44837  -0.42515  -0.41961
 Alpha  occ. eigenvalues --   -0.40988
 Alpha virt. eigenvalues --    0.12860   0.13356   0.14769   0.15253   0.15637
 Alpha virt. eigenvalues --    0.15730   0.15993   0.16416   0.17581   0.17700
 Alpha virt. eigenvalues --    0.18270   0.19133   0.19401   0.19977   0.20261

 Mulliken charges:
               1
     1  C   -0.177008
     2  H    0.097680
     3  H    0.089225
     4  C   -0.188803
     5  H    0.093964
     6  H    0.093963
     7  C   -0.176999
     8  H    0.089227
     9  H    0.097682
    10  C   -0.273217
    11  H    0.086434
    12  H    0.089399
    13  H    0.087917
    14  C   -0.273218
    15  H    0.086435
    16  H    0.089401
    17  H    0.087918
 Sum of Mulliken charges =   0.00000

 Dipole moment (field-independent basis, Debye):
    X=              0.0000    Y=             -0.0166    Z=              0.0000  Tot=              0.0166
 N-N= 1.248763775338D+02 E-N=-1.860449042657D+02  KE=-4.248502334827D+01
  Exact polarizability:  37.222   0.001  34.359   0.515   0.001  34.564
 Approx polarizability:  23.228   0.000  23.060   0.169   0.000  23.318
 Leave Link  601 at Fri Nov  3 15:08:25 2017, MaxMem=   134217728 cpu:               0.1 elap:               0.1
 (Enter /n/sw/g16_nehalem/g16/l701.exe)
 ... and contract with generalized density number  0.
 Compute integral second derivatives.
 Leave Link  701 at Fri Nov  3 15:08:25 2017, MaxMem=   134217728 cpu:               0.1 elap:               0.1
 (Enter /n/sw/g16_nehalem/g16/l702.exe)
 L702 exits ... SP integral derivatives will be done elsewhere.

                      1                      2                      3
                      A                      A                      A
 Frequencies --     61.5606               139.0653               215.7361
 Red. masses --      1.9851                 1.2562                 1.0710
 Frc consts  --      0.0044                 0.0143                 0.0294
 IR Inten    --      0.0006                 0.0204                 0.0002

                      4                      5                      6
                      A                      A                      A
 Frequencies --    303.4588               369.5073               492.4992
 Red. masses --      1.5413                 2.7747                 1.9008
 Frc consts  --      0.0836                 0.2232                 0.2716
 IR Inten    --      0.0020                 0.1022                 2.1726

                      7                      8                      9
                      A                      A                      A
 Frequencies --    509.9653               787.1873               811.2905
 Red. masses --      2.2373                 1.1671                 1.2520
 Frc consts  --      0.3428                 0.4261                 0.4855
 IR Inten    --      1.3242                11.5778                 8.5214

                     10                     11                     12
                      A                      A                      A
 Frequencies --    880.5549               905.1811               961.7201
 Red. masses --      1.3894                 1.4313                 1.3873
 Frc consts  --      0.6348                 0.6909                 0.7560
 IR Inten    --      3.9395                 2.8206                10.5826

                     13                     14                     15
                      A                      A                      A
 Frequencies --   1003.3925              1065.0162              1065.5176
 Red. masses --      1.2757                 1.2622                 1.4224
 Frc consts  --      0.7567                 0.8435                 0.9515
 IR Inten    --      0.9213                 0.2058                 0.7275

                     16                     17                     18
                      A                      A                      A
 Frequencies --   1100.7497              1102.7350              1122.1098
 Red. masses --      1.2653                 1.2925                 1.4166
 Frc consts  --      0.9033                 0.9260                 1.0509
 IR Inten    --      1.6094                 0.0583                 3.4856

                     19                     20                     21
                      A                      A                      A
 Frequencies --   1127.9293              1179.9032              1220.0452
 Red. masses --      1.4004                 1.3777                 1.2255
 Frc consts  --      1.0497                 1.1301                 1.0748
 IR Inten    --      2.8424                 0.2254                 0.7110

                     22                     23                     24
                      A                      A                      A
 Frequencies --   1248.7550              1276.5180              1302.9694
 Red. masses --      1.3540                 1.2545                 1.0809
 Frc consts  --      1.2440                 1.2044                 1.0812
 IR Inten    --      1.8191                 0.5152                 0.2996

                     25                     26                     27
                      A                      A                      A
 Frequencies --   1304.2290              1312.0270              1313.4369
 Red. masses --      1.0953                 1.1143                 1.1006
 Frc consts  --      1.0977                 1.1302                 1.1187
 IR Inten    --     12.8507                 2.1567                 3.4323

                     28                     29                     30
                      A                      A                      A
 Frequencies --   1342.3205              1345.6780              1372.5376
 Red. masses --      1.2341                 1.1103                 1.3745
 Frc consts  --      1.3102                 1.1846                 1.5256
 IR Inten    --      0.4439                 4.4272                 0.0724

                     31                     32                     33
                      A                      A                      A
 Frequencies --   1378.7996              1410.4081              1444.9210
 Red. masses --      1.7346                 1.9127                 2.1337
 Frc consts  --      1.9430                 2.2417                 2.6247
 IR Inten    --      6.3646                 3.8618                 2.7487

                     34                     35                     36
                      A                      A                      A
 Frequencies --   2881.9921              2890.9353              2898.6950
 Red. masses --      1.1043                 1.0766                 1.1035
 Frc consts  --      5.4043                 5.3015                 5.4630
 IR Inten    --      1.4336                 0.0237                 0.8182

                     37                     38                     39
                      A                      A                      A
 Frequencies --   2904.1904              2912.9373              2914.3926
 Red. masses --      1.0892                 1.0600                 1.0610
 Frc consts  --      5.4127                 5.2993                 5.3095
 IR Inten    --      3.4319                 0.1328                 2.9623

                     40                     41                     42
                      A                      A                      A
 Frequencies --   3021.7974              3021.8525              3029.8020
 Red. masses --      1.0953                 1.0953                 1.0854
 Frc consts  --      5.8926                 5.8930                 5.8706
 IR Inten    --      2.1980                 3.0605                 0.4701

                     43                     44                     45
                      A                      A                      A
 Frequencies --   3029.8449              3040.2216              3040.2750
 Red. masses --      1.0856                 1.0540                 1.0542
 Frc consts  --      5.8716                 5.7399                 5.7411
 IR Inten    --      4.5147                 2.1970                 2.2537

 - Thermochemistry -
 -------------------
 Temperature   298.150 Kelvin.  Pressure   1.00000 Atm.
 Atom     1 has atomic number  6 and mass  12.00000

 Molecular mass:    72.09390 amu.
 Principal axes and moments of inertia in atomic units:
                           1         2         3
     Eigenvalues --   199.21031 687.45893 700.64721
           X            0.99996   0.00000  -0.00844
           Y            0.00001   1.00000   0.00010
           Z            0.00844  -0.00010   0.99996
 This molecule is an asymmetric top.
 Rotational symmetry number  1.
 Rotational temperatures (Kelvin)      0.43479     0.12599     0.12362
 Rotational constants (GHZ):           9.05948     2.62523     2.57582
 Zero-point vibrational energy     407117.1 (Joules/Mol)
                                   97.30332 (Kcal/Mol)
 Warning -- explicit consideration of   7 degrees of freedom as
           vibrations may cause significant error
 Vibrational temperatures:     88.57   200.08   310.40   436.61   531.64
          (Kelvin)            708.60   733.73  1132.59  1167.27  1266.92
                             1302.35  1383.70  1443.66  1532.32  1533.04
                             1583.73  1586.59  1614.47  1622.84  1697.62
                             1755.37  1796.68  1836.62  1874.68  1876.49
                             1887.71  1889.74  1931.30  1936.13  1974.78
                             1983.79  2029.26  2078.92  4146.54  4159.41
                             4170.58  4178.48  4191.07  4193.16  4347.69
                             4347.77  4359.21  4359.27  4374.20  4374.28

 Zero-point correction=                           0.155063 (Hartree/Particle)
 Thermal correction to Energy=                    0.161759
 Thermal correction to Enthalpy=                  0.162703
 Thermal correction to Gibbs Free Energy=         0.124944
 Sum of electronic and zero-point Energies=              0.100892
 Sum of electronic and thermal Energies=                 0.107588
 Sum of electronic and thermal Enthalpies=               0.108532
 Sum of electronic and thermal Free Energies=            0.070773

                     E (Thermal)             CV                S
                      KCal/Mol        Cal/Mol-Kelvin    Cal/Mol-Kelvin
 Total                  101.505             24.182             79.471
 Electronic               0.000              0.000              0.000
 Translational            0.889              2.981             38.743
 Rotational               0.889              2.981             26.065
 Vibrational             99.728             18.221             14.664
 Vibration     1          0.597              1.973              4.407
 Vibration     2          0.615              1.914              2.817
 Vibration     3          0.645              1.817              1.995
 Vibration     4          0.695              1.667              1.398
 Vibration     5          0.742              1.535              1.082
 Vibration     6          0.848              1.267              0.677
 Vibration     7          0.865              1.228              0.634

 Optimization completed.
    -- Stationary point found.
 Normal termination of Gaussian 16 at Fri Nov  3 15:08:25 2017.
