 Gaussian 16, Revision A.03,
 Gaussian 16:  ES64L-G16RevA.03 25-Dec-2016

 ------------------------
 #p pddg opt freq=noraman
 ------------------------

 ----------------------
 pentane conformation 2
 ----------------------
 Symbolic Z-matrix:
 Charge =  0 Multiplicity = 1

 SCF Done:  E(RPDDG) = -0.452882255047E-01 A.U. after   12 cycles
 SCF Done:  E(RPDDG) = -0.544071427085E-01 A.U. after   10 cycles
 SCF Done:  E(RPDDG) = -0.551646389552E-01 A.U. after   10 cycles
 SCF Done:  E(RPDDG) = -0.552178198986E-01 A.U. after    9 cycles
 SCF Done:  E(RPDDG) = -0.552410902515E-01 A.U. after    8 cycles
 Optimization completed.
    -- Stationary point found.
 Normal termination of Gaussian 16 at Fri Nov  3 15:08:12 2017.

 --------------------------------------------------------------
 #P Geom=AllCheck Guess=TCheck SCRF=Check GenChk RPDDG/ZDO Freq
 --------------------------------------------------------------

 Structure from the checkpoint file:  "/scratch/dhuang9_pentane_conformation_2/Gau-52206.chk"
 ----------------------
 pentane conformation 2
 ----------------------
 Charge =  0 Multiplicity = 1

                         Standard orientation:
 ---------------------------------------------------------------------
 Center     Atomic      Atomic             Coordinates (Angstroms)
 Number     Number       Type             X           Y           Z
 ---------------------------------------------------------------------
      1          6           0        2.487901   -0.328579   -0.000007
      2          1           0        2.527033   -0.979877   -0.881398
      3          1           0        2.527104   -0.979776    0.881453
      4          1           0        3.399779    0.277291   -0.000092
      5          6           0        1.246310    0.539865    0.000006
      6          1           0        1.245718    1.211037    0.884055
      7          1           0        1.245706    1.211064   -0.884023
      8          6           0        0.000000   -0.333291    0.000009
      9          1           0       -0.000004   -1.007563    0.883731
     10          1           0        0.000004   -1.007593   -0.883691
     11          6           0       -1.246310    0.539865   -0.000006
     12          1           0       -1.245708    1.211041   -0.884052
     13          1           0       -1.245716    1.211059    0.884025
     14          6           0       -2.487901   -0.328579   -0.000003
     15          1           0       -2.527072   -0.979817    0.881430
     16          1           0       -3.399779    0.277291   -0.000013
     17          1           0       -2.527064   -0.979836   -0.881421
 ---------------------------------------------------------------------

 SCF Done:  E(RPDDG) = -0.552410902515E-01 A.U. after    2 cycles

 The electronic state is 1-A.
 Alpha  occ. eigenvalues --   -1.45129  -1.23232  -0.98235  -0.80124  -0.78746
 Alpha  occ. eigenvalues --   -0.61571  -0.56884  -0.54488  -0.53855  -0.50085
 Alpha  occ. eigenvalues --   -0.47533  -0.47020  -0.44841  -0.43482  -0.42341
 Alpha  occ. eigenvalues --   -0.40763
 Alpha virt. eigenvalues --    0.12119   0.14263   0.14873   0.15005   0.15062
 Alpha virt. eigenvalues --    0.15739   0.16352   0.16547   0.16850   0.17993
 Alpha virt. eigenvalues --    0.18151   0.18754   0.19337   0.19890   0.20076

 Mulliken charges:
               1
     1  C   -0.270831
     2  H    0.088173
     3  H    0.088173
     4  H    0.087773
     5  C   -0.177715
     6  H    0.093115
     7  H    0.093116
     8  C   -0.196695
     9  H    0.096542
    10  H    0.096543
    11  C   -0.177715
    12  H    0.093115
    13  H    0.093115
    14  C   -0.270831
    15  H    0.088173
    16  H    0.087773
    17  H    0.088173
 Sum of Mulliken charges =   0.00000

 Dipole moment (field-independent basis, Debye):
    X=              0.0000    Y=             -0.0349    Z=              0.0000  Tot=              0.0349
 N-N= 1.226930930057D+02 E-N=-1.816414655314D+02  KE=-4.248860038445D+01
  Exact polarizability:  37.196   0.000  35.295   0.000   0.000  33.842
 Approx polarizability:  22.760   0.000  23.816   0.000   0.000  22.692
 Leave Link  601 at Fri Nov  3 15:08:16 2017, MaxMem=   134217728 cpu:               0.1 elap:               0.1
 (Enter /n/sw/g16_nehalem/g16/l701.exe)
 ... and contract with generalized density number  0.
 Compute integral second derivatives.
 Leave Link  701 at Fri Nov  3 15:08:16 2017, MaxMem=   134217728 cpu:               0.2 elap:               0.2
 (Enter /n/sw/g16_nehalem/g16/l702.exe)
 L702 exits ... SP integral derivatives will be done elsewhere.

                      1                      2                      3
                      A                      A                      A
 Frequencies --    101.5036               117.3289               192.5334
 Red. masses --      2.1406                 1.5947                 1.1155
 Frc consts  --      0.0130                 0.0129                 0.0244
 IR Inten    --      0.0387                 0.0000                 0.0000

                      4                      5                      6
                      A                      A                      A
 Frequencies --    201.8222               231.7892               463.1764
 Red. masses --      1.1074                 2.5442                 3.4792
 Frc consts  --      0.0266                 0.0805                 0.4398
 IR Inten    --      0.0013                 0.5290                 0.0169

                      7                      8                      9
                      A                      A                      A
 Frequencies --    465.4488               717.7346               778.6406
 Red. masses --      2.4032                 1.0778                 1.1287
 Frc consts  --      0.3067                 0.3271                 0.4032
 IR Inten    --      0.0004                14.0749                 0.0000

                     10                     11                     12
                      A                      A                      A
 Frequencies --    876.3732               915.2653               972.8193
 Red. masses --      1.1571                 1.3954                 1.0885
 Frc consts  --      0.5236                 0.6887                 0.6069
 IR Inten    --      3.6239                 4.7029                 0.0000

                     13                     14                     15
                      A                      A                      A
 Frequencies --    974.4666              1071.7655              1118.4824
 Red. masses --      1.3052                 1.4435                 1.5177
 Frc consts  --      0.7302                 0.9769                 1.1187
 IR Inten    --      9.1959                 0.0780                 0.4645

                     16                     17                     18
                      A                      A                      A
 Frequencies --   1118.5531              1118.7998              1121.9397
 Red. masses --      1.6721                 1.6991                 1.2480
 Frc consts  --      1.2326                 1.2531                 0.9256
 IR Inten    --      1.9981                 1.4153                 0.0000

                     19                     20                     21
                      A                      A                      A
 Frequencies --   1138.5285              1145.0835              1154.1219
 Red. masses --      1.5221                 1.1747                 1.1070
 Frc consts  --      1.1625                 0.9075                 0.8688
 IR Inten    --      0.8930                 0.1705                 0.0000

                     22                     23                     24
                      A                      A                      A
 Frequencies --   1224.0248              1280.9888              1286.3348
 Red. masses --      1.2792                 1.2814                 1.1237
 Frc consts  --      1.1292                 1.2389                 1.0955
 IR Inten    --      4.3415                 3.5851                 6.1831

                     25                     26                     27
                      A                      A                      A
 Frequencies --   1293.7168              1304.3846              1304.4253
 Red. masses --      1.1538                 1.0595                 1.0596
 Frc consts  --      1.1378                 1.0621                 1.0622
 IR Inten    --      1.8033                 0.0000                 9.9820

                     28                     29                     30
                      A                      A                      A
 Frequencies --   1307.1618              1307.7885              1333.8133
 Red. masses --      1.0737                 1.0803                 1.6095
 Frc consts  --      1.0809                 1.0886                 1.6870
 IR Inten    --      5.1640                 4.9109                 0.2289

                     31                     32                     33
                      A                      A                      A
 Frequencies --   1352.5492              1402.9361              1463.1462
 Red. masses --      1.6795                 2.4238                 2.9434
 Frc consts  --      1.8102                 2.8108                 3.7126
 IR Inten    --      2.9459                 0.4961                 2.9063

                     34                     35                     36
                      A                      A                      A
 Frequencies --   2886.2581              2897.0145              2897.5546
 Red. masses --      1.1049                 1.1040                 1.0602
 Frc consts  --      5.4232                 5.4593                 5.2445
 IR Inten    --      0.2050                 3.3223                 0.1138

                     37                     38                     39
                      A                      A                      A
 Frequencies --   2898.0777              2904.9757              2906.6593
 Red. masses --      1.1041                 1.0598                 1.0596
 Frc consts  --      5.4638                 5.2696                 5.2743
 IR Inten    --      0.0000                 2.7705                 0.0162

                     40                     41                     42
                      A                      A                      A
 Frequencies --   3022.3197              3022.3521              3029.3238
 Red. masses --      1.1009                 1.1009                 1.0631
 Frc consts  --      5.9251                 5.9251                 5.7478
 IR Inten    --      0.0000                 5.5519                 0.0279

                     43                     44                     45
                      A                      A                      A
 Frequencies --   3029.3484              3037.5062              3037.5531
 Red. masses --      1.0637                 1.0718                 1.0712
 Frc consts  --      5.7514                 5.8264                 5.8231
 IR Inten    --      3.4580                 5.2019                 1.1005

 - Thermochemistry -
 -------------------
 Temperature   298.150 Kelvin.  Pressure   1.00000 Atm.
 Atom     1 has atomic number  6 and mass  12.00000

 Molecular mass:    72.09390 amu.
 Principal axes and moments of inertia in atomic units:
                           1         2         3
     Eigenvalues --   109.83104 889.14155 942.85948
           X            1.00000   0.00000   0.00000
           Y            0.00000   1.00000   0.00000
           Z            0.00000   0.00000   1.00000
 This molecule is an asymmetric top.
 Rotational symmetry number  1.
 Rotational temperatures (Kelvin)      0.78861     0.09741     0.09186
 Rotational constants (GHZ):          16.43198     2.02976     1.91411
 Zero-point vibrational energy     403299.4 (Joules/Mol)
                                   96.39086 (Kcal/Mol)
 Warning -- explicit consideration of   7 degrees of freedom as
           vibrations may cause significant error
 Vibrational temperatures:    146.04   168.81   277.01   290.38   333.49
          (Kelvin)            666.41   669.68  1032.66  1120.29  1260.91
                             1316.86  1399.67  1402.04  1542.03  1609.25
                             1609.35  1609.70  1614.22  1638.09  1647.52
                             1660.52  1761.10  1843.06  1850.75  1861.37
                             1876.72  1876.78  1880.71  1881.62  1919.06
                             1946.02  2018.51  2105.14  4152.68  4168.16
                             4168.93  4169.69  4179.61  4182.03  4348.44
                             4348.49  4358.52  4358.56  4370.29  4370.36

 Zero-point correction=                           0.153609 (Hartree/Particle)
 Thermal correction to Energy=                    0.160713
 Thermal correction to Enthalpy=                  0.161657
 Thermal correction to Gibbs Free Energy=         0.123269
 Sum of electronic and zero-point Energies=              0.098368
 Sum of electronic and thermal Energies=                 0.105472
 Sum of electronic and thermal Enthalpies=               0.106416
 Sum of electronic and thermal Free Energies=            0.068028

                     E (Thermal)             CV                S
                      KCal/Mol        Cal/Mol-Kelvin    Cal/Mol-Kelvin
 Total                  100.849             25.064             80.795
 Electronic               0.000              0.000              0.000
 Translational            0.889              2.981             38.743
 Rotational               0.889              2.981             26.024
 Vibrational             99.071             19.103             16.028
 Vibration     1          0.604              1.948              3.425
 Vibration     2          0.608              1.935              3.144
 Vibration     3          0.635              1.850              2.203
 Vibration     4          0.639              1.837              2.116
 Vibration     5          0.653              1.792              1.865
 Vibration     6          0.821              1.332              0.757
 Vibration     7          0.823              1.327              0.750

 Optimization completed.
    -- Stationary point found.
 Normal termination of Gaussian 16 at Fri Nov  3 15:08:17 2017.
